20727	0	*	1
3048	1	*	1
42027	1	0.0/3126aa/99.96%	1
7832	2	*	1
44089	3	*	1
16515	3	0.0/2504aa/100%	1
59504	3	0.0/1184:707aa/31.84%	1
76936	4	*	1
49085	5	*	1
41765	6	*	1
53567	7	*	1
74654	7	0.0/1062:1037aa/96.55%	1
39660	8	*	1
35541	3	1.23e-110/1038:684aa/25.95%	1
70069	9	*	1
18341	10	*	1
10191	11	*	1
57439	11	0.0/1909aa/100%	1
20170	12	*	1
33426	13	*	1
23114	14	*	1
49184	15	*	1
70638	15	0.0/1824aa/74.9%	1
76225	16	*	1
66150	17	*	1
53755	18	*	1
55588	16	0.0/1789aa/100%	1
43989	19	*	1
25081	20	*	1
77050	21	*	1
21173	22	*	1
15672	23	*	1
1628	24	*	1
24167	15	0.0/1655aa/100%	1
32392	15	0.0/1656aa/75.74%	1
17634	25	*	1
54130	26	*	1
62925	27	*	1
71547	28	*	1
68971	29	*	1
6483	30	*	1
82614	31	*	1
2323	32	*	1
7783	32	0.0/1563aa/99.3%	1
4166	33	*	1
34614	34	*	1
53405	35	*	1
22207	36	*	1
70297	37	*	1
57073	38	*	1
712	32	4.80e-72/636:811aa/30.94%	1
66487	32	2.59e-120/1588aa/31.61%	1
46928	33	0.0/668:701aa/57.29%	1
50767	39	*	1
78831	40	*	1
29029	41	*	1
38282	42	*	1
10541	43	*	1
34395	44	*	1
71606	45	*	1
79731	46	*	1
993	22	0.0/809aa/55.78%	1
38400	47	*	1
19084	22	0.0/805aa/56.09%	1
10321	46	0.0/1428aa/99.65%	1
46486	22	0.0/817aa/56.95%	1
49808	22	0.0/1413aa/100%	1
26489	48	*	1
37725	22	0.0/808aa/57.29%	1
12966	49	*	1
60488	22	0.0/807aa/57.41%	1
69050	22	0.0/805aa/57.41%	1
10771	50	*	1
604	22	0.0/806aa/57.54%	1
27953	49	0.0/1406aa/88.68%	1
17717	51	*	1
37748	52	*	1
75288	51	0.0/1380aa/100%	1
74850	53	*	1
69478	22	0.0/842aa/58.9%	1
17101	54	*	1
44429	55	*	1
15900	22	0.0/805aa/59.06%	1
42053	22	0.0/806aa/59.27%	1
35227	22	0.0/805aa/59.32%	1
55717	22	0.0/805aa/59.32%	1
2102	56	*	1
7904	57	*	1
12975	58	*	1
70895	22	0.0/808aa/59.89%	1
74647	59	*	1
47945	56	0.0/1352aa/73.47%	1
52535	60	*	1
69047	49	0.0/1402aa/60.07%	1
49192	22	0.0/805aa/60.11%	1
44059	60	0.0/1338aa/100%	1
46635	56	0.0/1337aa/100%	1
29269	61	*	1
75951	22	0.0/805aa/60.25%	1
73838	62	*	1
55945	63	*	1
15427	64	*	1
55232	22	0.0/805aa/60.98%	1
20841	59	0.0/1318aa/100%	1
22266	22	0.0/408aa/30.47%	1
32227	65	*	1
47890	66	*	1
81028	67	*	1
46501	68	*	1
66790	68	0.0/1301aa/99.16%	1
35910	69	*	1
67073	70	*	1
53441	22	0.0/828aa/62%	1
21371	22	0.0/810aa/61.73%	1
51262	58	6.85e-142/1191aa/27.18%	1
11814	41	0.0/1292aa/100%	1
17589	71	*	1
80709	72	*	1
32491	73	*	1
7973	74	*	1
26128	75	*	1
75674	76	*	1
4270	77	*	1
40680	78	*	1
49233	78	0.0/1230aa/70.39%	1
6889	78	0.0/1242aa/98.18%	1
9555	79	*	1
31164	80	*	1
58365	22	0.0/824aa/64.15%	1
58595	81	*	1
58097	82	*	1
1481	83	*	1
34920	84	*	1
49465	76	0.0/1299aa/36.5%	1
75452	85	*	1
6499	86	*	1
20745	22	0.0/835aa/65.24%	1
4956	76	0.0/1258aa/48.83%	1
24111	87	*	1
39278	22	0.0/808aa/64.86%	1
77989	24	9.89e-98/1048aa/25.32%	1
42961	88	*	1
82899	22	0.0/840aa/65.67%	1
24730	89	*	1
37861	78	0.0/1225aa/64.4%	1
71683	90	*	1
32613	22	0.0/840aa/65.88%	1
68937	91	*	1
72750	92	*	1
9007	93	*	1
12180	22	0.0/805aa/65.28%	1
11955	22	0.0/811aa/65.36%	1
22408	22	0.0/865aa/66.26%	1
62560	22	0.0/841aa/65.85%	1
64759	76	7.68e-106/1169aa/28.39%	1
8021	94	*	1
23768	22	0.0/805aa/65.71%	1
47949	22	0.0/805aa/65.76%	1
66407	95	*	1
4693	91	0.0/1191aa/64.91%	1
36596	22	0.0/805aa/66.14%	1
26321	78	0.0/1209aa/64.55%	1
7197	96	*	1
82409	97	*	1
32567	64	0.0/1215aa/58.25%	1
54331	89	0.0/1212aa/99.33%	1
56489	88	0.0/1249aa/33.41%	1
55855	22	0.0/805aa/66.58%	1
62444	22	0.0/840aa/67.3%	1
46617	74	2.93e-101/623:163aa/25.83%	1
63999	77	1.06e-91/1293aa/30.81%	1
80450	22	0.0/838aa/67.33%	1
43282	98	*	1
32299	22	0.0/849aa/67.83%	1
63362	78	1.11e-167/1257aa/34.58%	1
31178	99	*	1
69832	94	1.29e-177/1195aa/36.99%	1
68988	94	0.0/1203aa/36.77%	1
13664	78	1.96e-159/1228aa/30.42%	1
52201	100	*	1
28645	101	*	1
54653	102	*	1
24912	103	*	1
29808	22	0.0/810aa/67.98%	1
64730	22	0.0/806aa/68.04%	1
47432	104	*	1
70557	99	1.69e-168/600:304aa/29.86%	1
31169	89	0.0/1174aa/60.71%	1
28020	22	0.0/810aa/68.22%	1
70916	22	0.0/805aa/68.27%	1
57276	105	*	1
52645	94	0.0/1184aa/48.63%	1
3994	101	0.0/1155aa/48.08%	1
54699	102	0.0/1137aa/57.19%	1
19124	106	*	1
46551	56	0.0/603:301:224aa/51.62%	1
56113	94	0.0/1183aa/41.12%	1
68573	22	0.0/421aa/34.12%	1
75902	22	0.0/393aa/33.44%	1
79419	94	0.0/1177aa/41.97%	1
3454	102	0.0/1148aa/56.92%	1
35961	107	*	1
51738	99	3.56e-150/600:247aa/27.69%	1
23538	77	2.21e-86/1281aa/30.88%	1
47897	108	*	1
52042	109	*	1
61524	22	0.0/809aa/68.92%	1
37803	22	0.0/805aa/69.03%	1
67945	22	0.0/819aa/69.44%	1
43043	110	*	1
13150	111	*	1
5997	94	0.0/888aa/35.22%	1
7362	22	0.0/806aa/69.33%	1
25362	22	0.0/842aa/70.08%	1
46238	22	0.0/805aa/69.39%	1
53621	110	0.0/1120aa/35.63%	1
2960	22	0.0/838aa/70.2%	1
6896	112	*	1
29242	22	0.0/805aa/69.57%	1
37243	113	*	1
32781	114	*	1
50043	22	0.0/837aa/70.21%	1
9359	22	0.0/805aa/69.87%	1
55851	115	*	1
72122	19	0.0/1152aa/100%	1
43471	116	*	1
30293	22	0.0/815aa/70.21%	1
81358	117	*	1
61997	22	0.0/834aa/70.8%	1
42573	22	0.0/806aa/70.49%	1
46878	118	*	1
60621	119	*	1
28472	22	0.0/808aa/70.61%	1
13202	22	0.0/805aa/70.8%	1
46749	22	0.0/808aa/70.92%	1
24590	22	0.0/816aa/71.13%	1
58465	120	*	1
52649	22	0.0/806aa/71.11%	1
39977	118	0.0/1131aa/100%	1
14416	22	0.0/805aa/71.23%	1
18935	22	0.0/805aa/71.3%	1
27468	121	*	1
35522	22	0.0/415aa/35.63%	1
53354	122	*	1
72518	22	0.0/805aa/71.49%	1
72538	123	*	1
51571	22	0.0/805aa/71.81%	1
58517	22	0.0/806aa/71.81%	1
80307	22	0.0/808aa/71.81%	1
21819	22	0.0/823aa/72.05%	1
64124	98	0.0/1119aa/100%	1
82585	78	3.11e-140/1193aa/31.45%	1
9416	112	0.0/1121aa/45.43%	1
82890	22	0.0/805aa/72%	1
829	22	0.0/805aa/72.06%	1
16370	22	0.0/808aa/72.13%	1
7247	22	0.0/805aa/72.19%	1
43614	22	0.0/806aa/72.19%	1
49057	22	0.0/807aa/72.17%	1
18784	99	3.41e-169/600:304aa/31.74%	1
26366	22	0.0/817aa/72.75%	1
15843	22	0.0/805aa/72.45%	1
27433	124	*	1
69547	22	0.0/806aa/72.74%	1
69670	22	0.0/817aa/72.83%	1
27889	125	*	1
31372	22	0.0/808aa/72.78%	1
41519	126	*	1
10724	22	0.0/809aa/72.91%	1
19251	22	0.0/409aa/36.44%	1
64116	127	*	1
16486	128	*	1
22850	22	0.0/806aa/73.11%	1
24999	129	*	1
31505	130	*	1
22301	22	0.0/817aa/73.81%	1
16401	22	0.0/405aa/36.52%	1
78746	131	*	1
73854	22	0.0/805aa/73.58%	1
78120	77	2.24e-75/870:151aa/29.89%	1
50974	22	0.0/824aa/74.01%	1
28494	132	*	1
40967	133	*	1
30253	134	*	1
65260	22	0.0/808aa/73.92%	1
62753	110	4.53e-104/1088aa/25.23%	1
32242	22	0.0/806aa/74.28%	1
42769	22	0.0/805aa/74.19%	1
867	22	0.0/832aa/74.72%	1
9015	22	0.0/818aa/74.35%	1
17008	22	0.0/828aa/75.04%	1
70596	135	*	1
5569	22	0.0/805aa/74.46%	1
46958	132	0.0/1081aa/100%	1
63038	22	0.0/807aa/74.37%	1
19787	132	0.0/1087aa/49.95%	1
46331	22	0.0/808aa/74.81%	1
69594	22	0.0/807aa/74.81%	1
72215	136	*	1
3350	22	0.0/808aa/75.02%	1
6497	132	0.0/1084aa/51.16%	1
28431	131	0.0/1117aa/38.46%	1
25422	137	*	1
41275	131	0.0/1102aa/39.62%	1
43635	134	0.0/1062aa/67.47%	1
28129	138	*	1
31200	139	*	1
25145	22	0.0/817aa/75.77%	1
42576	140	*	1
57234	22	0.0/824aa/75.96%	1
14714	131	0.0/1100aa/35.62%	1
30201	131	0.0/1101aa/35.43%	1
56049	22	0.0/403aa/37.72%	1
46547	141	*	1
6715	142	*	1
59241	22	0.0/816aa/75.96%	1
66793	142	0.0/848:63aa/85.29%	1
5208	143	*	1
53258	144	*	1
82928	145	*	1
20464	146	*	1
54017	22	0.0/805aa/76.15%	1
42143	147	*	1
22988	22	0.0/408aa/38.08%	1
24629	148	*	1
26081	22	0.0/805aa/76.52%	1
29225	22	0.0/819aa/76.71%	1
35189	131	0.0/1099aa/35.96%	1
20598	140	2.29e-155/523:456aa/61.73%	1
29801	149	*	1
32298	22	0.0/403aa/38.45%	1
54436	22	0.0/808aa/76.81%	1
56293	22	0.0/805aa/76.81%	1
80173	22	0.0/403aa/38.45%	1
82224	22	0.0/806aa/76.88%	1
7053	136	0.0/1056aa/37.38%	1
48974	22	0.0/805aa/76.95%	1
14528	22	0.0/805aa/77.03%	1
74551	22	0.0/403aa/38.37%	1
19865	150	*	1
62117	151	*	1
45757	110	2.76e-146/1082aa/33.39%	1
10552	131	0.0/1073aa/35.63%	1
12991	22	0.0/805aa/77.32%	1
5028	151	0.0/1040aa/100%	1
68367	152	*	1
51233	138	0.0/1067aa/50.57%	1
27981	22	0.0/805aa/77.77%	1
32935	153	*	1
46407	154	*	1
459	22	0.0/805aa/77.85%	1
8224	155	*	1
39727	156	*	1
42498	157	*	1
37086	22	0.0/805aa/78%	1
39427	22	0.0/805aa/78%	1
43036	158	*	1
37192	22	0.0/826aa/78.46%	1
25802	22	0.0/851aa/79.08%	1
35401	159	*	1
46293	112	5.11e-77/1016aa/28.5%	1
56993	91	2.48e-98/881aa/27.72%	1
32904	160	*	1
73218	91	8.91e-87/916aa/28.46%	1
24536	102	0.0/730aa/30.24%	1
17973	161	*	1
22982	153	0.0/1022aa/100%	1
72366	22	0.0/806aa/78.76%	1
26036	162	*	1
31983	22	0.0/805aa/79.07%	1
820	141	0.0/1056aa/78.74%	1
27334	163	*	1
69351	22	0.0/826aa/79.7%	1
73979	136	0.0/1031aa/39.8%	1
664	164	*	1
8449	165	*	1
33442	166	*	1
40363	167	*	1
61893	22	0.0/815aa/79.72%	1
48406	22	0.0/806aa/79.86%	1
26397	168	*	1
55135	169	*	1
70574	170	*	1
39261	171	*	1
9219	91	3.92e-88/912aa/28.44%	1
26219	172	*	1
81926	173	*	1
29696	22	0.0/392aa/37.36%	1
29815	174	*	1
31948	175	*	1
51372	176	*	1
73640	136	2.41e-165/1016aa/35.9%	1
20877	96	0.0/885aa/40.64%	1
32523	177	*	1
45075	178	*	1
41308	179	*	1
58543	180	*	1
76491	181	*	1
1541	99	1.04e-138/577:125aa/27.46%	1
59987	182	*	1
52178	22	0.0/402aa/40.48%	1
40398	177	2.74e-140/478:442aa/45.26%	1
4168	102	0.0/730aa/31.31%	1
37768	165	0.0/989aa/99.89%	1
69312	22	0.0/806aa/81.31%	1
5088	183	*	1
13143	184	*	1
20247	185	*	1
54301	177	3.67e-116/426:486aa/45.14%	1
71871	141	1.12e-138/835aa/30.26%	1
51309	141	4.59e-124/836aa/28.67%	1
70293	177	3.59e-116/426:486aa/45.18%	1
75719	186	*	1
22133	187	*	1
54370	22	0.0/810aa/81.72%	1
77165	188	*	1
17391	189	*	1
58880	185	2.66e-165/996aa/33.63%	1
63376	190	*	1
38226	191	*	1
59099	22	0.0/402aa/40.93%	1
71836	192	*	1
77549	193	*	1
12405	194	*	1
53283	194	2.90e-171/956aa/32.31%	1
7694	141	0.0/980aa/100%	1
16735	195	*	1
52520	194	2.46e-171/956aa/32.34%	1
23048	196	*	1
53836	197	*	1
40588	198	*	1
31046	171	1.46e-118/640:281aa/34.66%	1
58394	185	0.0/959aa/85.64%	1
65195	22	0.0/825aa/82.97%	1
25630	185	0.0/959aa/84.18%	1
32785	57	0.0/428:265:195aa/55.39%	1
58429	185	0.0/958aa/85.61%	1
11166	199	*	1
20593	200	*	1
69792	163	0.0/972aa/100%	1
80955	22	0.0/808aa/82.81%	1
65619	22	0.0/405aa/41.44%	1
1245	201	*	1
19423	202	*	1
5039	96	0.0/881aa/38.01%	1
14186	22	0.0/805aa/83.16%	1
16054	203	*	1
76006	203	0.0/968aa/99.69%	1
32112	194	5.88e-168/963aa/32.98%	1
49115	204	*	1
52623	205	*	1
54431	206	*	1
63236	199	0.0/973aa/35.67%	1
71590	185	0.0/958aa/78.9%	1
8927	22	0.0/826aa/83.54%	1
20511	184	8.32e-103/420:159aa/27.32%	1
59977	202	7.66e-163/658:91:77aa/37.99%	1
64840	201	0.0/900aa/51.96%	1
74634	207	*	1
25487	22	0.0/434aa/41.7%	1
29943	22	0.0/808aa/83.5%	1
48913	173	5.01e-99/998aa/31.12%	1
49171	208	*	1
20762	209	*	1
40891	209	0.0/962aa/99.27%	1
57160	210	*	1
21405	184	1.68e-85/422:158aa/29.47%	1
64922	194	1.14e-177/955aa/33.43%	1
75208	211	*	1
16448	194	2.07e-175/958aa/34.61%	1
37365	184	1.06e-110/421:160aa/32.11%	1
57040	212	*	1
57355	213	*	1
68698	214	*	1
248	215	*	1
13765	216	*	1
60402	205	0.0/950aa/37.72%	1
82792	217	*	1
26251	218	*	1
40263	219	*	1
64481	220	*	1
2914	22	0.0/397aa/41.04%	1
52865	141	2.14e-113/928aa/30.36%	1
17164	221	*	1
29688	170	8.62e-84/769aa/26.72%	1
66833	22	0.0/805aa/84.38%	1
32865	133	8.28e-107/961aa/29.38%	1
62852	141	0.0/976aa/78.38%	1
50340	222	*	1
8023	223	*	1
75560	22	0.0/404aa/42.06%	1
61066	96	0.0/887aa/40.84%	1
574	141	9.77e-114/933aa/30.66%	1
3013	224	*	1
29326	22	0.0/402aa/42.36%	1
32264	225	*	1
45936	226	*	1
16272	91	5.88e-99/881aa/30.06%	1
81882	141	1.92e-122/907aa/32.06%	1
82580	227	*	1
9795	228	*	1
54721	22	0.0/808aa/85%	1
58486	229	*	1
3477	80	0.0/883aa/39.53%	1
39011	194	1.11e-169/950aa/32.55%	1
78241	141	1.80e-119/894aa/30.86%	1
675	22	0.0/805aa/85.18%	1
26699	194	1.07e-176/945aa/33.75%	1
38845	230	*	1
34875	224	0.0/537:290aa/43.75%	1
39879	231	*	1
35856	78	0.0/940aa/58.11%	1
5025	158	0.0/921aa/97.55%	1
20357	96	0.0/891aa/38.64%	1
37475	165	0.0/914aa/46.6%	1
46393	74	1.83e-100/786aa/25.9%	1
23972	22	0.0/805aa/85.54%	1
60867	232	*	1
62286	233	*	1
77582	217	0.0/941aa/100%	1
21253	191	0.0/939aa/100%	1
66169	200	0.0/948aa/58.14%	1
81027	234	*	1
81066	235	*	1
67491	91	1.75e-72/876aa/27.82%	1
57397	236	*	1
41633	237	*	1
8171	22	0.0/805aa/86.09%	1
41734	201	0.0/900aa/53.68%	1
42441	200	0.0/958aa/49.83%	1
48780	201	0.0/923aa/46.09%	1
55520	238	*	1
8283	239	*	1
39234	240	*	1
49700	225	0.0/933aa/100%	1
69601	226	0.0/911aa/97.64%	1
61205	22	0.0/805aa/86.37%	1
15731	241	*	1
30238	242	*	1
44719	22	0.0/805aa/86.46%	1
15017	22	0.0/805aa/86.55%	1
61797	243	*	1
68760	200	7.95e-158/671:111aa/41.29%	1
68795	201	0.0/842aa/42.25%	1
14211	244	*	1
3122	201	4.46e-83/858aa/27.9%	1
8424	245	*	1
25593	246	*	1
30440	202	0.0/777:82aa/52.37%	1
31746	247	*	1
82370	243	0.0/894aa/50.43%	1
2170	194	4.83e-170/950aa/33.22%	1
39571	210	1.68e-177/885aa/37.86%	1
26797	248	*	1
30278	22	0.0/403aa/43.41%	1
64437	249	*	1
71801	202	0.0/988aa/54.31%	1
25579	250	*	1
22893	22	0.0/805aa/87.12%	1
55928	244	0.0/880aa/57.14%	1
78385	22	0.0/827aa/87.44%	1
15199	251	*	1
39959	167	3.24e-99/776aa/25.46%	1
66817	252	*	1
82342	251	0.0/923aa/93.6%	1
30670	253	*	1
80043	183	3.14e-131/569aa/25.59%	1
24181	254	*	1
31946	255	*	1
82183	256	*	1
35664	257	*	1
74024	22	0.0/805aa/87.5%	1
44792	258	*	1
56657	78	0.0/924aa/58.97%	1
58228	259	*	1
4277	194	6.02e-170/916aa/35.11%	1
9864	260	*	1
62955	251	0.0/919aa/77.2%	1
3075	222	0.0/953aa/61.79%	1
25560	222	0.0/953aa/61.79%	1
61915	4	2.32e-155/365aa/29.36%	1
67779	261	*	1
2136	187	6.11e-166/963aa/36.72%	1
4824	22	0.0/403aa/43.82%	1
36943	22	0.0/806aa/87.97%	1
72816	262	*	1
74118	262	0.0/907aa/80%	1
75424	263	*	1
15436	263	1.77e-142/861aa/34.28%	1
40515	22	0.0/403aa/43.92%	1
43516	264	*	1
8573	264	0.0/913aa/93.64%	1
15550	222	0.0/951aa/69.59%	1
55478	15	0.0/900aa/78.04%	1
60464	218	5.99e-115/960aa/31.83%	1
17977	262	0.0/881aa/71.64%	1
20392	22	0.0/807aa/88.35%	1
29146	22	0.0/805aa/88.46%	1
29960	222	0.0/953aa/64.61%	1
82710	265	*	1
5489	141	1.34e-122/905aa/33.33%	1
32457	266	*	1
59917	250	0.0/909aa/100%	1
7073	267	*	1
11201	243	0.0/907aa/89.86%	1
71396	268	*	1
3509	78	0.0/895aa/75.41%	1
7749	22	0.0/805aa/88.75%	1
21419	222	0.0/951aa/81.56%	1
70558	269	*	1
17215	270	*	1
23499	22	0.0/844aa/89.83%	1
53650	271	*	1
68115	222	0.0/948aa/81.43%	1
3038	204	1.25e-128/935aa/34.62%	1
30948	272	*	1
39926	202	0.0/779:82aa/52.76%	1
51232	218	1.62e-116/957aa/34.51%	1
53153	222	0.0/944aa/80.97%	1
55888	273	*	1
73744	222	0.0/952aa/99.22%	1
16781	264	0.0/903aa/93.68%	1
17517	251	0.0/925aa/77.85%	1
40129	70	1.35e-98/609aa/25.47%	1
57996	202	0.0/778:82aa/52.93%	1
4403	129	0.0/877aa/42.68%	1
79740	170	3.71e-89/803aa/28.49%	1
80621	194	4.71e-72/964aa/27.71%	1
4651	274	*	1
21248	275	*	1
28801	276	*	1
64786	277	*	1
7137	278	*	1
25492	265	0.0/910aa/86.77%	1
40452	123	5.09e-149/591aa/30.88%	1
48100	116	1.84e-78/750aa/25.66%	1
51089	170	1.96e-89/781aa/27.66%	1
67544	240	3.45e-163/898aa/38.11%	1
74336	265	0.0/875aa/72.66%	1
82577	279	*	1
3364	22	0.0/405aa/44.6%	1
6698	280	*	1
35037	240	0.0/886aa/45.6%	1
51660	184	2.07e-102/418:159aa/29.25%	1
59360	265	0.0/882aa/73.3%	1
70198	281	*	1
1324	282	*	1
43937	283	*	1
60215	201	1.24e-142/829aa/31.18%	1
8903	284	*	1
23617	285	*	1
29076	22	0.0/832aa/90.52%	1
31195	238	0.0/886aa/43.25%	1
62616	22	0.0/405aa/44.7%	1
63765	208	0.0/939aa/42.58%	1
69572	22	0.0/805aa/89.74%	1
6598	102	1.68e-171/685aa/31.69%	1
16201	256	1.19e-144/523aa/28.9%	1
36185	256	0.0/502:297aa/89.17%	1
42296	208	0.0/939aa/42.63%	1
63821	286	*	1
67203	287	*	1
2730	46	3.41e-137/893aa/36.53%	1
8038	179	0.0/910aa/78.18%	1
43668	22	0.0/408aa/44.85%	1
58988	255	4.41e-122/626aa/25.39%	1
7964	277	0.0/901aa/94.17%	1
16582	251	3.29e-145/938aa/35.05%	1
32238	277	0.0/901aa/93.5%	1
42798	265	0.0/882aa/77.04%	1
44273	22	0.0/808aa/90.14%	1
48633	288	*	1
53253	179	0.0/621:47aa/56.61%	1
71867	289	*	1
9037	277	0.0/903aa/84.17%	1
10804	265	0.0/882aa/85.63%	1
14627	290	*	1
32798	22	0.0/805aa/90.34%	1
10603	174	0.0/885aa/46.96%	1
34794	201	1.16e-123/807aa/31.12%	1
40380	291	*	1
42934	102	6.94e-161/693aa/31.68%	1
62242	129	0.0/870aa/38.87%	1
19216	292	*	1
47680	168	0.0/889aa/100%	1
53704	265	0.0/882aa/77.84%	1
17891	123	1.62e-157/593aa/31.41%	1
34009	277	0.0/927aa/42.34%	1
52393	293	*	1
67029	222	0.0/933aa/39.97%	1
68782	129	0.0/888aa/41.44%	1
44829	277	0.0/901aa/87.71%	1
64120	22	0.0/406aa/45.32%	1
66575	282	0.0/898aa/99.88%	1
71767	22	0.0/816aa/90.86%	1
24928	102	1.45e-179/683:53aa/35.32%	1
31133	294	*	1
34896	295	*	1
40995	283	4.91e-125/883aa/35.21%	1
47237	22	0.0/807aa/90.74%	1
53049	296	*	1
68696	297	*	1
2705	201	4.49e-103/818aa/29.26%	1
53211	296	0.0/749aa/37.06%	1
55956	129	0.0/888aa/41.58%	1
67361	102	1.41e-179/683:53aa/35.36%	1
7376	298	*	1
7986	102	1.26e-174/692aa/34.38%	1
15927	299	*	1
70781	300	*	1
81777	301	*	1
8186	251	1.46e-96/886aa/27.74%	1
14724	184	1.24e-111/421:159aa/34.76%	1
38192	49	9.10e-127/546aa/27.97%	1
72270	302	*	1
12638	264	0.0/884aa/93.65%	1
13907	303	*	1
15776	22	0.0/405aa/45.46%	1
30444	304	*	1
44649	305	*	1
62554	210	1.15e-84/866aa/28.91%	1
77143	306	*	1
19096	184	6.23e-86/422:158aa/32.12%	1
27132	294	0.0/863aa/61.52%	1
46139	255	2.39e-127/622aa/26.44%	1
47860	307	*	1
67338	160	0.0/880aa/100%	1
70415	308	*	1
1343	309	*	1
10496	102	0.0/682aa/34.39%	1
15428	22	0.0/806aa/91.79%	1
15903	22	0.0/408aa/45.67%	1
26416	310	*	1
49686	311	*	1
78421	296	0.0/872aa/52.27%	1
10693	311	0.0/891aa/59.06%	1
13267	312	*	1
17530	201	5.18e-130/832aa/32.38%	1
26558	313	*	1
42747	314	*	1
49554	296	0.0/874aa/52.51%	1
58755	315	*	1
5817	311	0.0/875aa/63.2%	1
43970	316	*	1
51186	33	1.04e-113/531aa/25.37%	1
17200	317	*	1
61269	296	0.0/878aa/49.65%	1
44739	311	0.0/868aa/47.3%	1
56334	264	0.0/874aa/93.69%	1
36261	318	*	1
37542	22	0.0/831aa/92.77%	1
50446	202	4.22e-117/276:439:84aa/50.68%	1
475	319	*	1
10417	320	*	1
16285	222	0.0/562aa/45.35%	1
75289	311	0.0/884aa/59.12%	1
77041	321	*	1
14212	320	0.0/876aa/42.18%	1
76101	320	0.0/876aa/42.18%	1
67956	322	*	1
69858	296	0.0/875aa/52.24%	1
28556	323	*	1
9467	302	0.0/810aa/59.28%	1
31281	320	0.0/877aa/41.98%	1
50156	22	0.0/831aa/93.31%	1
70132	324	*	1
15341	325	*	1
26358	326	*	1
46747	327	*	1
75064	311	0.0/878aa/60.96%	1
13285	328	*	1
41258	329	*	1
62124	330	*	1
81997	129	0.0/882aa/41.84%	1
55600	22	0.0/413aa/46.29%	1
21975	331	*	1
48608	332	*	1
57719	294	0.0/854aa/51.1%	1
63852	311	0.0/874aa/58.86%	1
76903	333	*	1
80207	22	0.0/806aa/93.27%	1
1685	311	0.0/878aa/61.48%	1
38125	311	0.0/870aa/63.45%	1
59301	333	0.0/853aa/46.05%	1
71041	334	*	1
18886	22	0.0/403aa/46.57%	1
34298	22	0.0/827aa/93.84%	1
37381	335	*	1
61844	336	*	1
62721	337	*	1
27648	129	0.0/874aa/41.74%	1
51496	296	0.0/878aa/51.51%	1
55528	338	*	1
78277	339	*	1
14701	22	0.0/468aa/48.19%	1
58297	22	0.0/407aa/46.68%	1
41281	340	*	1
45793	244	0.0/772aa/48.36%	1
69404	333	0.0/841aa/52.33%	1
4087	180	0.0/857aa/100%	1
33134	341	*	1
80442	267	0.0/840aa/43.87%	1
82109	129	0.0/883aa/42.47%	1
24915	342	*	1
68294	343	*	1
26541	344	*	1
61434	210	1.95e-164/837aa/37.19%	1
63490	335	0.0/817aa/80%	1
73117	345	*	1
79641	311	0.0/862aa/38.47%	1
6634	311	0.0/865aa/37.93%	1
9930	194	4.47e-76/911aa/28.1%	1
10750	346	*	1
20704	319	0.0/854aa/100%	1
24769	347	*	1
26049	311	0.0/869aa/42.5%	1
28936	22	0.0/470aa/47.54%	1
34111	348	*	1
45841	349	*	1
47923	124	0.0/292:191aa/35.71%	1
57954	350	*	1
600	129	0.0/890aa/41.96%	1
16616	296	0.0/862aa/52.4%	1
32965	194	4.40e-76/911aa/28.13%	1
45110	351	*	1
51406	129	0.0/889aa/42.2%	1
60155	352	*	1
71128	22	0.0/403aa/47.01%	1
78710	136	5.51e-116/649aa/26.61%	1
79747	353	*	1
2075	22	0.0/412aa/47.3%	1
23823	354	*	1
24157	22	0.0/402aa/47.18%	1
76492	355	*	1
20234	311	6.20e-173/863aa/35.84%	1
67050	356	*	1
5959	357	*	1
19708	358	*	1
26915	359	*	1
27382	358	0.0/854aa/65.17%	1
73758	329	0.0/886aa/40.7%	1
15137	311	8.87e-174/865aa/40.28%	1
15166	222	0.0/898aa/82.33%	1
27673	360	*	1
34877	361	*	1
42539	362	*	1
51053	210	0.0/865aa/45.58%	1
57444	358	0.0/854aa/65.13%	1
63351	308	0.0/859aa/50.53%	1
73782	363	*	1
4934	364	*	1
7398	365	*	1
15319	281	6.56e-124/489:58aa/32.07%	1
32135	267	0.0/843aa/41.74%	1
78432	225	4.01e-126/667aa/29.59%	1
12852	129	0.0/878aa/44.74%	1
20325	277	6.15e-125/913aa/35.65%	1
26313	129	0.0/877aa/44.98%	1
36519	366	*	1
40067	129	0.0/878aa/45.1%	1
45646	294	4.58e-97/675aa/27.15%	1
47311	358	0.0/854aa/41.2%	1
69898	222	0.0/896aa/82.4%	1
78210	367	*	1
20621	250	0.0/848aa/38.88%	1
24749	368	*	1
44021	129	0.0/878aa/45.39%	1
78124	308	0.0/853aa/48.46%	1
13855	339	6.35e-143/875aa/36.92%	1
15665	369	*	1
32973	370	*	1
37296	371	*	1
23968	22	0.0/412aa/47.74%	1
37954	372	*	1
64873	373	*	1
81499	374	*	1
6465	375	*	1
39666	194	5.18e-96/911aa/29.06%	1
82592	225	7.04e-118/853aa/32.97%	1
10447	342	0.0/693aa/43.34%	1
50477	376	*	1
54540	377	*	1
17266	224	0.0/821aa/47.08%	1
31680	22	0.0/403aa/47.68%	1
42057	378	*	1
43120	373	0.0/841aa/91.2%	1
40855	379	*	1
51161	358	0.0/850aa/62.14%	1
53040	370	0.0/803aa/47.02%	1
65176	22	0.0/403aa/47.73%	1
7235	22	0.0/427aa/48.39%	1
26783	380	*	1
41567	381	*	1
55830	382	*	1
56370	383	*	1
73145	384	*	1
17029	307	0.0/841aa/44.03%	1
40797	152	6.41e-131/362aa/25.41%	1
54087	385	*	1
54173	22	0.0/808aa/96.06%	1
61504	348	5.61e-70/854aa/28.4%	1
65359	227	0.0/823aa/98.21%	1
3689	386	*	1
5783	351	5.04e-135/858aa/41.45%	1
6290	387	*	1
10032	388	*	1
23270	311	5.28e-179/867aa/40.26%	1
35822	311	7.67e-171/807aa/36.32%	1
36428	129	0.0/882aa/44.68%	1
76923	224	0.0/807aa/48.86%	1
9831	389	*	1
55842	220	0.0/836aa/61.96%	1
5690	275	0.0/735aa/48.5%	1
18224	390	*	1
28824	391	*	1
31373	370	0.0/780aa/51.49%	1
42268	392	*	1
48997	102	1.73e-94/773aa/27.42%	1
59344	393	*	1
2888	102	1.70e-94/773aa/27.45%	1
45400	394	*	1
56930	373	0.0/835aa/70.38%	1
59305	22	0.0/417aa/48.32%	1
62549	373	0.0/835aa/70.74%	1
66257	395	*	1
76227	385	2.03e-80/750aa/25.77%	1
5389	373	0.0/832aa/67.82%	1
21521	348	5.09e-59/845aa/27.25%	1
31453	225	1.96e-121/803aa/31.93%	1
34766	311	3.40e-168/828aa/39.37%	1
79011	396	*	1
45783	397	*	1
50848	398	*	1
68474	399	*	1
76029	129	1.04e-98/874aa/31.73%	1
12191	400	*	1
58207	22	0.0/412aa/48.49%	1
58532	225	4.26e-123/668aa/29.84%	1
81194	129	4.40e-110/847aa/30.56%	1
68	225	3.04e-126/667aa/30.24%	1
6315	348	4.02e-61/867aa/28.31%	1
13719	370	0.0/816aa/48.43%	1
29664	22	0.0/459aa/48.91%	1
59619	194	1.19e-97/896aa/27.71%	1
65769	225	2.45e-125/667aa/30.12%	1
73108	129	1.83e-122/853aa/33.01%	1
39085	394	0.0/833aa/100%	1
43416	150	7.06e-178/782aa/33.77%	1
67723	401	*	1
18682	210	0.0/803aa/42.51%	1
30381	22	0.0/403aa/48.42%	1
42817	339	5.76e-161/849aa/37.43%	1
48356	102	7.06e-98/782aa/29.83%	1
3514	397	0.0/545:220aa/63.96%	1
19331	402	*	1
34274	275	0.0/735aa/48.97%	1
34687	307	0.0/822aa/43.16%	1
66000	78	9.45e-75/882aa/31.55%	1
74134	210	0.0/809aa/42.2%	1
22570	309	1.52e-107/858aa/30.26%	1
34546	403	*	1
37611	348	5.38e-55/832aa/26.87%	1
54252	210	0.0/809aa/42.25%	1
59937	286	0.0/808aa/46.61%	1
72539	331	0.0/847aa/46.06%	1
27238	129	1.69e-93/881aa/30.82%	1
38854	404	*	1
80705	185	0.0/817aa/85.07%	1
81073	22	0.0/406aa/48.78%	1
3458	370	0.0/811aa/48.23%	1
7167	405	*	1
43580	323	0.0/523aa/36.2%	1
53453	406	*	1
62090	407	*	1
62947	358	0.0/832aa/62.16%	1
4235	408	*	1
6392	351	1.01e-128/843aa/41.16%	1
7303	275	0.0/755aa/49.93%	1
7623	383	2.12e-124/820aa/28.62%	1
14598	129	1.50e-106/885aa/32.39%	1
19859	409	*	1
27266	410	*	1
32490	386	0.0/821aa/100%	1
47646	129	4.16e-100/820aa/29.71%	1
50985	411	*	1
81689	309	2.84e-81/838aa/29.59%	1
15127	412	*	1
38052	370	0.0/802aa/51.09%	1
62466	351	1.97e-132/853aa/39.14%	1
78776	251	1.82e-78/850aa/27.31%	1
27644	398	1.06e-146/839aa/37.48%	1
30080	370	0.0/801aa/51.03%	1
43058	302	0.0/805aa/47.86%	1
59022	129	5.10e-102/855aa/30.89%	1
66014	333	4.42e-135/835aa/34.31%	1
81569	351	4.97e-123/845aa/36.99%	1
23190	152	5.71e-127/346aa/26.52%	1
26326	129	0.0/840aa/45.59%	1
46745	311	1.00e-174/726aa/40.34%	1
78055	22	0.0/366aa/44.62%	1
81782	413	*	1
11639	414	*	1
41270	326	0.0/774aa/84.82%	1
59575	404	3.72e-39/890aa/26.19%	1
69056	394	1.26e-83/861aa/30.59%	1
79408	370	0.0/818aa/46.87%	1
80821	415	*	1
7570	348	5.12e-65/866aa/29.16%	1
10920	416	*	1
54715	417	*	1
64096	333	3.25e-117/602:137aa/32.47%	1
71422	185	0.0/817aa/84.06%	1
81256	348	3.15e-65/855aa/30.02%	1
6089	319	1.98e-167/703aa/36.56%	1
12214	254	0.0/815aa/100%	1
27790	418	*	1
55705	419	*	1
56067	370	0.0/808aa/50.79%	1
71341	370	0.0/817aa/51.9%	1
16648	333	4.48e-120/620:118aa/33.29%	1
22956	420	*	1
27474	421	*	1
38615	286	2.48e-136/808aa/35.38%	1
39773	383	1.35e-91/810aa/27.39%	1
55246	307	0.0/836aa/44.47%	1
65201	406	0.0/824aa/47.78%	1
82723	220	1.50e-154/500aa/29.72%	1
7732	129	5.91e-99/826aa/30.01%	1
68829	275	0.0/735aa/49.81%	1
71868	401	0.0/809aa/99.5%	1
73769	406	0.0/823aa/47.72%	1
12552	22	0.0/404aa/49.26%	1
16010	422	*	1
18484	423	*	1
39431	424	*	1
81606	210	5.12e-167/816aa/41.87%	1
27078	425	*	1
50798	22	0.0/403aa/49.44%	1
58112	371	1.07e-101/741aa/27.37%	1
81327	370	0.0/787aa/44.51%	1
82121	334	3.01e-150/827aa/37.6%	1
2172	22	0.0/403aa/49.5%	1
7724	286	2.99e-147/829aa/38.51%	1
13020	426	*	1
63273	307	0.0/840aa/41.23%	1
68105	408	0.0/810aa/100%	1
77924	222	0.0/859aa/82.09%	1
82562	411	0.0/812aa/59.75%	1
28683	331	0.0/850aa/45.98%	1
39215	427	*	1
46384	394	1.89e-84/856aa/32.5%	1
25345	428	*	1
30631	22	0.0/409aa/49.5%	1
31357	419	0.0/787aa/64.23%	1
32466	429	*	1
35963	22	0.0/404aa/50%	1
39040	129	1.71e-97/836aa/31.8%	1
68641	430	*	1
74802	224	1.27e-123/676aa/32.05%	1
45347	22	0.0/408aa/49.56%	1
53472	396	2.25e-89/855aa/30.35%	1
73922	348	2.66e-51/855aa/28.12%	1
76836	431	*	1
6218	432	*	1
6792	433	*	1
26057	348	3.04e-51/853aa/28.03%	1
37805	333	9.50e-105/625:157aa/33.62%	1
42858	434	*	1
44703	435	*	1
66776	436	*	1
78670	129	1.56e-122/847aa/33.87%	1
80159	370	0.0/785aa/51.61%	1
4252	275	4.91e-143/707aa/31.92%	1
18278	437	*	1
31038	286	3.78e-120/824aa/33.54%	1
34876	438	*	1
66659	439	*	1
67086	129	5.83e-116/876aa/34.4%	1
1100	22	0.0/403aa/49.87%	1
27643	22	0.0/437aa/50.87%	1
44342	343	3.29e-107/872aa/35.44%	1
57924	440	*	1
77283	22	0.0/413aa/49.75%	1
16244	441	*	1
28482	442	*	1
35778	417	3.92e-177/794aa/38.23%	1
59701	443	*	1
62177	78	1.97e-86/875aa/33.49%	1
79808	444	*	1
8759	225	0.0/801aa/59.72%	1
17080	445	*	1
29325	344	0.0/500aa/46.25%	1
46022	417	0.0/798aa/38.9%	1
48259	152	1.54e-134/352aa/27.55%	1
60991	446	*	1
68079	286	5.51e-151/800aa/36.65%	1
68612	447	*	1
75329	448	*	1
2529	449	*	1
11531	450	*	1
39669	451	*	1
47745	446	0.0/802aa/73.03%	1
49521	452	*	1
21269	129	3.80e-127/859aa/35%	1
32016	453	*	1
36123	411	1.22e-161/824aa/35.5%	1
40986	454	*	1
45706	129	6.02e-116/870aa/34.37%	1
47402	389	0.0/765aa/95.62%	1
47789	451	5.95e-74/760aa/26.87%	1
53146	455	*	1
72313	451	8.33e-76/750aa/27.25%	1
21380	456	*	1
30862	457	*	1
45100	373	0.0/792aa/86.1%	1
57155	394	0.0/782aa/51.43%	1
4132	220	0.0/833aa/54.76%	1
22055	447	0.0/732aa/65.03%	1
81427	286	5.48e-142/813aa/35.71%	1
81532	286	1.47e-136/824aa/36.59%	1
10320	451	2.29e-74/754aa/27.35%	1
12990	458	*	1
17290	210	2.62e-171/804aa/41.78%	1
20161	459	*	1
26726	460	*	1
61078	439	0.0/785aa/59.97%	1
73098	459	0.0/770aa/43.53%	1
10758	461	*	1
12569	405	0.0/796aa/100%	1
14131	210	2.58e-176/826aa/43.09%	1
17894	458	0.0/802aa/54.02%	1
21750	129	2.01e-101/851aa/31.53%	1
35697	434	0.0/746aa/50.37%	1
39527	286	0.0/793aa/47.11%	1
43444	440	0.0/805aa/64.69%	1
43592	323	0.0/524aa/35.05%	1
54860	462	*	1
64010	452	1.28e-109/810aa/38.69%	1
74872	323	0.0/523aa/35.17%	1
76180	185	0.0/800aa/77.76%	1
5956	458	0.0/809aa/42.01%	1
6570	463	*	1
15008	464	*	1
38098	465	*	1
51751	466	*	1
53473	457	0.0/629aa/44.65%	1
55287	467	*	1
76324	468	*	1
6918	451	7.91e-76/750aa/27.45%	1
11139	220	0.0/833aa/59.19%	1
12492	286	9.40e-128/814aa/35.01%	1
16689	469	*	1
31356	470	*	1
34190	294	4.18e-71/766aa/32.11%	1
56660	471	*	1
57855	456	0.0/793aa/99.87%	1
64637	442	0.0/782aa/65.49%	1
82675	451	0.0/783aa/47.73%	1
13886	333	0.0/814aa/42.37%	1
15699	438	6.27e-148/743aa/35.43%	1
67540	281	2.63e-124/430:117:55aa/41.48%	1
79	458	0.0/803aa/40.65%	1
1157	442	0.0/784aa/68.93%	1
1553	451	4.14e-74/760aa/27.14%	1
5891	319	1.86e-149/688aa/33.58%	1
16220	472	*	1
19552	473	*	1
23949	474	*	1
35625	272	2.45e-54/641aa/25.63%	1
45644	451	5.31e-74/760aa/27.14%	1
59130	366	1.17e-128/567:91aa/36.23%	1
31876	475	*	1
33451	451	1.07e-74/754aa/27.56%	1
39860	476	*	1
68240	275	6.31e-164/714aa/34.76%	1
70180	366	1.58e-129/570:91aa/36.78%	1
76461	282	0.0/793aa/97.34%	1
77579	282	0.0/774aa/96.46%	1
10223	477	*	1
36144	334	9.47e-126/820aa/35.56%	1
45743	286	0.0/787aa/49.11%	1
48457	218	6.73e-52/797aa/25.69%	1
57227	478	*	1
59675	479	*	1
62997	282	0.0/755aa/95.56%	1
69791	362	0.0/790aa/100%	1
70361	480	*	1
73278	481	*	1
82217	333	4.80e-153/580:129aa/37.97%	1
46027	218	2.51e-45/792aa/27.5%	1
63451	482	*	1
64273	275	3.05e-107/663aa/29.4%	1
7823	473	0.0/759aa/39.08%	1
12249	483	*	1
46039	286	4.49e-117/796aa/34.89%	1
47280	484	*	1
67893	456	0.0/793aa/99.74%	1
69219	286	0.0/790aa/46.31%	1
80795	222	0.0/832aa/71.06%	1
19914	459	0.0/778aa/44.34%	1
32318	282	0.0/793aa/97.83%	1
54391	485	*	1
58160	460	0.0/793aa/68.61%	1
68499	486	*	1
2691	333	8.05e-146/576:197aa/39.18%	1
8851	15	0.0/788aa/79.64%	1
16983	282	0.0/774aa/97.07%	1
24323	222	0.0/840aa/63.23%	1
27000	201	8.61e-123/813aa/34.6%	1
37918	282	0.0/793aa/97.83%	1
46062	487	*	1
53382	361	0.0/425:238aa/71.11%	1
2447	22	0.0/391aa/47.51%	1
9340	488	*	1
17635	439	0.0/780aa/60.38%	1
36931	489	*	1
65775	490	*	1
77021	306	7.31e-86/410:96aa/27.77%	1
79571	491	*	1
4209	492	*	1
10777	218	6.62e-42/790aa/25.12%	1
15796	439	0.0/770aa/62.37%	1
22490	275	3.75e-123/680aa/30.61%	1
28927	490	0.0/784aa/100%	1
51972	22	0.0/483aa/53.69%	1
15486	452	8.83e-106/802aa/32.43%	1
55682	493	*	1
72829	494	*	1
17123	434	0.0/752aa/76.85%	1
23786	495	*	1
27028	434	6.39e-78/690aa/30.81%	1
32316	496	*	1
52880	22	0.0/366aa/46.67%	1
58749	218	1.82e-47/824aa/28%	1
63286	497	*	1
72990	222	0.0/832aa/66.49%	1
2484	498	*	1
4837	222	0.0/829aa/99.1%	1
11795	333	0.0/801aa/42.25%	1
13230	499	*	1
27327	218	1.80e-47/824aa/28.04%	1
46262	500	*	1
46998	499	0.0/769aa/55.69%	1
61558	447	0.0/802aa/94.49%	1
71357	222	0.0/830aa/81.56%	1
30854	501	*	1
32463	22	0.0/404aa/51.28%	1
46532	501	0.0/780aa/97.3%	1
75577	502	*	1
23519	503	*	1
33265	422	0.0/760aa/70.86%	1
41033	504	*	1
45309	286	2.02e-114/798aa/33.5%	1
49220	505	*	1
79910	504	0.0/773aa/82.02%	1
81731	15	0.0/779aa/100%	1
81788	501	0.0/780aa/97.17%	1
306	22	0.0/403aa/51.54%	1
12025	506	*	1
15451	507	*	1
18422	64	9.52e-143/762aa/35.73%	1
19335	358	6.24e-21/233:528aa/29.17%	1
35859	508	*	1
44879	383	1.35e-77/822aa/28.79%	1
59973	495	0.0/777aa/99.87%	1
70152	22	0.0/403aa/51.54%	1
59420	509	*	1
67005	510	*	1
69182	307	1.13e-133/743aa/36.16%	1
74764	456	0.0/776aa/99.87%	1